# LAMMPS data file written by WriteLammpsdata function in RASPA(written by Zhao Li)
4670  atoms
1945  bonds
1556  angles
1167  dihedrals
0  impropers
0.0      48.070800000000 xlo xhi
0.0      48.418301203899 ylo yhi
0.0      48.994419744294 zlo zhi
    0.326197621887    -0.185135431399     0.248555732210 xy xz yz

7 atom types
5 bond types
4 angle types
3 dihedral types
0 improper types

Masses

1     15.034520000000  # CH3_sp3
2     14.026580000000  # CH2_sp3
3     14.006703211812  # N
4     15.999404927130  # O
5     91.223647606720  # Zr
6     12.010735896764  # C
7      1.007940753896  # H

Pair Coeffs

1      0.194745898454      3.750000000000 # CH3_sp3
2      0.091411340091      3.950000000000 # CH2_sp3
3      0.068995689738      3.260000000000 # N
4      0.059993659942      3.120000000000 # O
5      0.068995689738      2.780000000000 # Zr
6      0.104983936891      3.430000000000 # C
7      0.043996675426      2.570000000000 # H

Atoms

1  1  3                 0.0		          14.90584            21.33621            45.75638		# N
2  1  3                 0.0		          21.40151            39.44832            21.18666		# N
3  1  3                 0.0		          45.37378            45.56821            39.85745		# N
4  1  3                 0.0		          21.46126            45.64619            15.33280		# N
5  1  3                 0.0		          38.66634            15.12631            14.97318		# N
6  1  3                 0.0		          39.13490            39.47014            39.61346		# N
7  1  3                 0.0		          45.02971            15.18089            21.43702		# N
8  1  3                 0.0		          20.90403            21.27113            39.98974		# N
9  1  3                 0.0		          39.19048            45.70483            45.88621		# N
10  1  3                 0.0		          15.37372            39.59984            15.45480		# N
11  1  3                 0.0		          39.12477            21.16001            21.13962		# N
12  1  3                 0.0		          44.96042            39.88559            45.43938		# N
13  1  3                 0.0		          14.86619            15.28333            39.91183		# N
14  1  3                 0.0		           9.24977            27.28576            27.41238		# N
15  1  3                 0.0		          27.25313            33.30962             2.91223		# N
16  1  3                 0.0		          33.00561             9.29886            33.52394		# N
17  1  3                 0.0		           2.77081             2.96031             9.26142		# N
18  1  3                 0.0		           2.98479             9.09510             3.19101		# N
19  1  3                 0.0		           9.46556            33.68119            33.68415		# N
20  1  3                 0.0		           9.16144             9.40649             9.40595		# N
21  1  3                 0.0		          33.30447             2.95596            27.39572		# N
22  1  3                 0.0		          26.62254            27.10781             9.32560		# N
23  1  3                 0.0		          33.54475            33.63701             9.13305		# N
24  1  3                 0.0		           8.94149             3.05009             3.28900		# N
25  1  3                 0.0		          26.79912             9.29354            27.60885		# N
26  1  3                 0.0		           2.76647            27.27585            33.57196		# N
27  1  3                 0.0		          33.33487            27.14189             2.77700		# N
28  1  3                 0.0		           3.45142            33.16583            27.72986		# N
29  1  3                 0.0		          26.76047             3.02146            33.72139		# N
30  1  3                 0.0		          21.07193            15.14438            46.02340		# N
31  1  3                 0.0		          44.98215            21.16995            15.36906		# N
32  1  3                 0.0		          15.07879            45.79213            21.67268		# N
33  1  4                 0.0		          12.02481            27.92314            34.99230		# O
34  1  4                 0.0		          14.32706            27.40111            35.16672		# O
35  1  4                 0.0		          10.53773            24.37338            32.94483		# O
36  1  4                 0.0		          10.42347            22.19563            33.34658		# O
37  1  4                 0.0		           8.36432            26.00989            36.37542		# O
38  1  4                 0.0		           8.73543            25.97379            38.70755		# O
39  1  4                 0.0		          13.66126            20.85719            36.84674		# O
40  1  4                 0.0		          13.63717            21.24435            34.52098		# O
41  1  4                 0.0		          15.30359            24.24379            38.60956		# O
42  1  4                 0.0		          14.81930            26.68858            38.44739		# O
43  1  4                 0.0		          11.89801            22.54013            40.07646		# O
44  1  4                 0.0		           9.43940            22.74736            39.50469		# O
45  1  4                 0.0		          11.90715            20.81853            38.29306		# O
46  1  4                 0.0		           9.49601            21.33488            38.04858		# O
47  1  4                 0.0		          13.38894            24.24924            40.25626		# O
48  1  4                 0.0		          13.30137            26.67350            39.77024		# O
49  1  4                 0.0		          15.35895            22.54294            37.09857		# O
50  1  4                 0.0		          15.16551            22.87003            34.57438		# O
51  1  4                 0.0		          10.22048            27.89244            36.38522		# O
52  1  4                 0.0		          10.25292            27.43158            38.78741		# O
53  1  4                 0.0		           8.52650            24.50418            34.67629		# O
54  1  4                 0.0		           8.99303            22.06879            34.97320		# O
55  1  4                 0.0		          12.06513            26.05522            33.09377		# O
56  1  4                 0.0		          14.41132            25.89334            33.72923		# O
57  1  5                 0.0		          12.78091            25.96310            35.07315		# Zr
58  1  4                 0.0		          13.98342            24.79639            36.34749		# O
59  1  5                 0.0		          10.42716            23.62558            34.90509		# Zr
60  1  4                 0.0		          11.53762            22.33329            36.14465		# O
61  1  5                 0.0		          10.27201            25.97320            37.25634		# Zr
62  1  4                 0.0		          11.34999            24.77933            38.61691		# O
63  1  5                 0.0		          13.58654            22.76536            35.98934		# Zr
64  1  4                 0.0		          12.49164            23.93005            34.60329		# O
65  1  5                 0.0		          13.40592            25.11493            38.34107		# Zr
66  1  4                 0.0		          12.32206            26.41823            37.07800		# O
67  1  5                 0.0		          11.06982            22.74583            38.15244		# Zr
68  1  4                 0.0		           9.84577            23.94075            36.90309		# O
69  1  4                 0.0		          10.73698            25.64641            35.25834		# O
70  1  4                 0.0		          13.11238            23.08489            37.98684		# O
71  1  6                 0.0		          11.00201            28.47016            35.54300		# C
72  1  6                 0.0		          11.20527            25.34986            32.44410		# C
73  1  6                 0.0		           7.88860            25.38933            35.35682		# C
74  1  6                 0.0		          12.93871            20.28554            37.74040		# C
75  1  6                 0.0		          15.85392            23.21461            38.07454		# C
76  1  6                 0.0		          12.78270            23.21640            40.71779		# C
77  1  7                 0.0		          14.93533            25.01742            36.20541		# H
78  1  7                 0.0		          11.06617            24.98689            39.53997		# H
79  1  7                 0.0		          10.21054            26.21803            34.64591		# H
80  1  7                 0.0		          11.35195            21.39322            35.90115		# H
81  1  7                 0.0		          13.25936            21.63622            33.69346		# H
82  1  7                 0.0		          11.01928            21.45818            33.62683		# H
83  1  7                 0.0		          12.45511            26.56904            40.27145		# H
84  1  7                 0.0		          11.11778            27.91065            38.73352		# H
85  1  7                 0.0		          15.85203            23.49778            34.91048		# H
86  1  7                 0.0		          14.37483            25.00843            33.28730		# H
87  1  7                 0.0		           9.60022            23.45285            40.17934		# H
88  1  7                 0.0		           8.37820            25.05106            38.73254		# H
89  1  7                 0.0		          14.28922            27.79161            36.07508		# H
90  1  7                 0.0		          15.49068            26.54503            37.73501		# H
91  1  7                 0.0		           8.39436            22.25908            35.73849		# H
92  1  7                 0.0		           9.64626            20.77787            37.24556		# H
93  1  4                 0.0		          15.51335             0.09696            14.05405		# O
94  1  4                 0.0		          15.07944             2.46044            13.89923		# O
95  1  4                 0.0		          12.25578            47.16658            16.10839		# O
96  1  4                 0.0		          10.08294            47.09059            15.73113		# O
97  1  4                 0.0		          13.78029            45.04775            12.56854		# O
98  1  4                 0.0		          13.68448            45.48960            10.23640		# O
99  1  4                 0.0		           8.43088             2.04163            12.37305		# O
100  1  4                 0.0		           8.89803             1.91983            14.70617		# O
101  1  4                 0.0		          11.89828             3.70469            10.63473		# O
102  1  4                 0.0		          14.21705             3.17153            10.61905		# O
103  1  4                 0.0		          10.01364             0.33734             9.04045		# O
104  1  4                 0.0		          10.49874            46.29513             9.53921		# O
105  1  4                 0.0		           8.30832             0.29508            10.92233		# O
106  1  4                 0.0		           9.12909            46.32534            11.00856		# O
107  1  4                 0.0		          11.75077             1.80173             8.89249		# O
108  1  4                 0.0		          14.23661             1.59115             9.37851		# O
109  1  4                 0.0		          10.24140             3.75037            12.19471		# O
110  1  4                 0.0		          10.47283             3.45046            14.63561		# O
111  1  4                 0.0		          15.71020            46.80479            12.55580		# O
112  1  4                 0.0		          15.19966            46.95298            10.17614		# O
113  1  4                 0.0		          12.33823            45.19416            14.32352		# O
114  1  4                 0.0		           9.90978            45.70563            14.06973		# O
115  1  4                 0.0		          13.66284             0.21759            15.97708		# O
116  1  4                 0.0		          13.62458             2.56103            15.40189		# O
117  1  5                 0.0		          13.58407             0.97021            14.01093		# Zr
118  1  4                 0.0		          12.41132             2.24333            12.81008		# O
119  1  5                 0.0		          11.49086            47.11260            14.15253		# Zr
120  1  4                 0.0		          10.20682            48.29190            12.97421		# O
121  1  5                 0.0		          13.77717            46.97109            11.74053		# Zr
122  1  4                 0.0		          12.59007            48.12946            10.44561		# O
123  1  5                 0.0		          10.36891             1.90340            13.18636		# Zr
124  1  4                 0.0		          11.54529             0.73790            14.50872		# O
125  1  5                 0.0		          12.66276             1.74549            10.78661		# Zr
126  1  4                 0.0		          13.96895             0.57981            11.97816		# O
127  1  5                 0.0		          10.56272            47.88069            10.94290		# Zr
128  1  4                 0.0		          11.74499            46.58620            12.12955		# O
129  1  4                 0.0		          13.51305            47.37112            13.76400		# O
130  1  4                 0.0		          10.62388             1.49900            11.16093		# O
131  1  6                 0.0		          16.34032            47.50307            13.43280		# C
132  1  6                 0.0		          13.25314            47.79570            16.61744		# C
133  1  6                 0.0		          13.20249            44.56788            13.60820		# C
134  1  6                 0.0		           7.80433             1.31440            11.51761		# C
135  1  6                 0.0		          10.92639             4.27961            11.24569		# C
136  1  6                 0.0		          10.71222             1.21540             8.41773		# C
137  1  7                 0.0		          12.66936             3.18109            12.98156		# H
138  1  7                 0.0		          12.77408            47.87100             9.50982		# H
139  1  7                 0.0		          14.07958            46.81585            14.35536		# H
140  1  7                 0.0		           9.26966            48.11651            13.23682		# H
141  1  7                 0.0		           9.30943             1.50312            15.50477		# H
142  1  7                 0.0		           9.34192            47.69306            15.47440		# H
143  1  7                 0.0		          14.02767             0.84193             8.76706		# H
144  1  7                 0.0		          15.71699            47.79343            10.25257		# H
145  1  7                 0.0		          11.27614             3.99666            14.45384		# H
146  1  7                 0.0		          12.73232             2.58014            15.82961		# H
147  1  7                 0.0		          11.20802            46.44908             8.86701		# H
148  1  7                 0.0		          12.76286            45.12947            10.25551		# H
149  1  7                 0.0		          15.50998             2.36056            13.01292		# H
150  1  7                 0.0		          14.28419             3.63978            11.48723		# H
151  1  7                 0.0		          10.08660            45.11390            13.29562		# H
152  1  7                 0.0		           8.63371            46.41343            11.86008		# H
153  1  4                 0.0		          27.77302            34.76914            11.73073		# O
154  1  4                 0.0		          27.31630            34.73896            14.08492		# O
155  1  4                 0.0		          24.17102            33.11065            10.07619		# O
156  1  4                 0.0		          21.96842            33.58214            10.15115		# O
157  1  4                 0.0		          25.96833            36.57078             8.38882		# O
158  1  4                 0.0		          25.87333            38.93225             8.98313		# O
159  1  4                 0.0		          20.77725            36.65330            13.68071		# O
160  1  4                 0.0		          21.12527            34.34956            13.39458		# O
161  1  4                 0.0		          24.25812            38.08440            15.56063		# O
162  1  4                 0.0		          26.69991            37.89579            15.03100		# O
163  1  4                 0.0		          22.74936            40.16170            12.25105		# O
164  1  4                 0.0		          22.74493            39.77612             9.82975		# O
165  1  4                 0.0		          20.90574            38.47079            12.31671		# O
166  1  4                 0.0		          21.26425            38.39124             9.80672		# O
167  1  4                 0.0		          24.27694            39.94988            13.92225		# O
168  1  4                 0.0		          26.71861            39.41808            13.69884		# O
169  1  4                 0.0		          22.48680            36.66604            15.42785		# O
170  1  4                 0.0		          22.70853            34.19324            14.93497		# O
171  1  4                 0.0		          27.79309            36.44724            10.18741		# O
172  1  4                 0.0		          27.40794            38.80179            10.46864		# O
173  1  4                 0.0		          24.26350            35.06702             8.31533		# O
174  1  4                 0.0		          21.89406            35.37045             8.85868		# O
175  1  4                 0.0		          25.75229            32.92622            11.70820		# O
176  1  4                 0.0		          25.78793            33.33564            14.05454		# O
177  1  5                 0.0		          25.83643            34.84849            12.57932		# Zr
178  1  4                 0.0		          24.72132            35.99956            13.94871		# O
179  1  5                 0.0		          23.45822            35.08171            10.25698		# Zr
180  1  4                 0.0		          22.23776            36.23760            11.52692		# O
181  1  5                 0.0		          25.89957            37.32543            10.35693		# Zr
182  1  4                 0.0		          24.79617            38.59077            11.62981		# O
183  1  5                 0.0		          22.67413            35.78391            13.52883		# Zr
184  1  4                 0.0		          23.77935            34.50601            12.26036		# O
185  1  5                 0.0		          25.11408            38.03784            13.63515		# Zr
186  1  4                 0.0		          26.35470            36.87905            12.36717		# O
187  1  5                 0.0		          22.74450            38.27059            11.31673		# Zr
188  1  4                 0.0		          23.85445            37.12277             9.92137		# O
189  1  4                 0.0		          25.49616            35.29931            10.58377		# O
190  1  4                 0.0		          23.07367            37.81592            13.31717		# O
191  1  6                 0.0		          28.33838            35.46701            10.80768		# C
192  1  6                 0.0		          25.04706            32.44683            10.74399		# C
193  1  6                 0.0		          25.25801            35.68359             7.78472		# C
194  1  6                 0.0		          20.31007            37.74314            13.19175		# C
195  1  6                 0.0		          23.19794            37.53972            16.04322		# C
196  1  6                 0.0		          23.37961            40.60850            13.27994		# C
197  1  7                 0.0		          24.93949            35.72730            14.87275		# H
198  1  7                 0.0		          25.05023            39.53068            11.46077		# H
199  1  7                 0.0		          26.03581            34.72157             9.98898		# H
200  1  7                 0.0		          21.28559            36.06807            11.32359		# H
201  1  7                 0.0		          21.50202            33.56424            12.92277		# H
202  1  7                 0.0		          21.20639            33.88031            10.70626		# H
203  1  7                 0.0		          26.58543            40.07287            12.96980		# H
204  1  7                 0.0		          27.83362            38.70026            11.35642		# H
205  1  7                 0.0		          23.37065            34.40452            15.63853		# H
206  1  7                 0.0		          24.85685            33.00168            14.07953		# H
207  1  7                 0.0		          23.61126            40.24993             9.88658		# H
208  1  7                 0.0		          25.00906            38.88090             8.50200		# H
209  1  7                 0.0		          27.76732            35.62025            14.10010		# H
210  1  7                 0.0		          26.53952            37.09829            15.59394		# H
211  1  7                 0.0		          22.04583            36.25145             8.43439		# H
212  1  7                 0.0		          20.59401            37.68422             9.97722		# H
213  1  4                 0.0		          44.76267            36.68386            38.31462		# O
214  1  4                 0.0		          45.25302            34.28772            38.23476		# O
215  1  4                 0.0		           0.22736            38.22629            40.18816		# O
216  1  4                 0.0		           2.46761            38.04092            39.82070		# O
217  1  4                 0.0		          46.77161            40.13665            36.70809		# O
218  1  4                 0.0		          46.82025            39.60081            34.35195		# O
219  1  4                 0.0		           3.77121            34.80044            36.51211		# O
220  1  4                 0.0		           3.26932            34.93799            38.90647		# O
221  1  4                 0.0		           0.15978            32.97036            35.01092		# O
222  1  4                 0.0		          45.85932            33.59241            35.08147		# O
223  1  4                 0.0		           1.90734            36.34613            33.10994		# O
224  1  4                 0.0		           1.81442            38.81406            33.59841		# O
225  1  4                 0.0		           3.69944            36.31995            34.82229		# O
226  1  4                 0.0		           3.31051            38.74786            34.96095		# O
227  1  4                 0.0		           0.35937            34.68303            33.21871		# O
228  1  4                 0.0		          45.94975            34.98916            33.62585		# O
229  1  4                 0.0		           1.98211            33.02229            36.37150		# O
230  1  4                 0.0		           1.81171            33.20523            38.64533		# O
231  1  4                 0.0		          44.83364            38.34640            36.75904		# O
232  1  4                 0.0		          45.25730            38.18783            34.42054		# O
233  1  4                 0.0		           0.32438            40.07113            38.29992		# O
234  1  4                 0.0		           2.66479            39.46516            38.15440		# O
235  1  4                 0.0		          46.63686            36.66728            40.20041		# O
236  1  4                 0.0		          46.64628            34.31527            39.75309		# O
237  1  5                 0.0		          46.70056            35.82908            38.27640		# Zr
238  1  4                 0.0		          47.84893            34.51388            37.09955		# O
239  1  5                 0.0		           1.05061            38.09881            38.25141		# Zr
240  1  4                 0.0		           2.29172            36.90156            37.03880		# O
241  1  5                 0.0		          46.74800            38.18284            35.91879		# Zr
242  1  4                 0.0		          47.85802            36.95707            34.61897		# O
243  1  5                 0.0		           1.83464            34.87830            37.35286		# Zr
244  1  4                 0.0		           0.68816            36.06651            38.69334		# O
245  1  5                 0.0		          47.49367            34.93647            35.07560		# Zr
246  1  4                 0.0		          46.23847            36.16307            36.25195		# O
247  1  5                 0.0		           1.82821            37.23747            35.01239		# Zr
248  1  4                 0.0		           0.71973            38.56882            36.22255		# O
249  1  4                 0.0		          47.08508            37.84254            37.93785		# O
250  1  4                 0.0		           1.47060            35.21427            35.33821		# O
251  1  6                 0.0		          44.23191            37.66151            37.66348		# C
252  1  6                 0.0		          47.32224            37.60211            40.74768		# C
253  1  6                 0.0		          47.47693            40.67977            37.63702		# C
254  1  6                 0.0		           4.29208            35.41122            35.50528		# C
255  1  6                 0.0		           1.21184            32.44423            35.52193		# C
256  1  6                 0.0		           1.30473            35.31916            32.63028		# C
257  1  7                 0.0		          47.62349            33.57963            37.33473		# H
258  1  7                 0.0		          47.63325            37.16971            33.68072		# H
259  1  7                 0.0		          46.53462            38.43998            38.50324		# H
260  1  7                 0.0		           3.23874            37.09435            37.24654		# H
261  1  7                 0.0		           2.78860            35.19155            39.73496		# H
262  1  7                 0.0		           3.20993            37.45936            39.52331		# H
263  1  7                 0.0		          46.17712            35.68056            32.95659		# H
264  1  7                 0.0		          44.86279            37.27997            34.41760		# H
265  1  7                 0.0		           1.06280            33.34979            39.27099		# H
266  1  7                 0.0		          47.46685            34.41149            40.29840		# H
267  1  7                 0.0		           1.06633            38.65642            32.97030		# H
268  1  7                 0.0		          47.70797            40.03587            34.40437		# H
269  1  7                 0.0		          44.73782            34.40209            37.39695		# H
270  1  7                 0.0		          45.93370            33.03635            35.89674		# H
271  1  7                 0.0		           2.59575            39.92555            37.28083		# H
272  1  7                 0.0		           3.89698            38.62306            35.74780		# H
273  1  4                 0.0		           3.65939             1.57297             0.06761		# O
274  1  4                 0.0		           2.88494             1.84244            46.69511		# O
275  1  4                 0.0		           0.16078             3.51284             1.73685		# O
276  1  4                 0.0		          46.01455             3.15649             1.73734		# O
277  1  4                 0.0		           2.07072            48.36320             3.55063		# O
278  1  4                 0.0		           1.89267            46.00956             2.97200		# O
279  1  4                 0.0		          44.35956             0.24862            47.38544		# O
280  1  4                 0.0		          44.92433             2.62982            47.57358		# O
281  1  4                 0.0		          48.15352            47.10797            45.40362		# O
282  1  4                 0.0		           2.52426            47.19489            45.92982		# O
283  1  4                 0.0		          46.44576            45.24956            48.62549		# O
284  1  4                 0.0		          46.93901            45.30888             2.19642		# O
285  1  4                 0.0		          44.70807            47.00483            48.93367		# O
286  1  4                 0.0		          45.42649            46.66976             2.26060		# O
287  1  4                 0.0		          48.14250            45.22346            47.10862		# O
288  1  4                 0.0		           2.46618            45.66424            47.23748		# O
289  1  4                 0.0		          46.40966            48.56266            45.53933		# O
290  1  4                 0.0		          46.33370             2.39857            45.79704		# O
291  1  4                 0.0		           3.93777            48.34915             1.63984		# O
292  1  4                 0.0		           3.40633            46.04053             1.53647		# O
293  1  4                 0.0		           0.14343             1.55840             3.58933		# O
294  1  4                 0.0		          45.84474             1.46277             3.06362		# O
295  1  4                 0.0		           1.88710             3.47239             0.25232		# O
296  1  4                 0.0		           1.50897             3.40670            46.85924		# O
297  1  5                 0.0		           1.50602             1.85590            48.29821		# Zr
298  1  4                 0.0		           0.28546             0.74965            46.98369		# O
299  1  5                 0.0		          47.41367             1.57371             1.64572		# Zr
300  1  4                 0.0		          46.10494             0.43419             0.45369		# O
301  1  5                 0.0		           1.98031            47.59982             1.58154		# Zr
302  1  4                 0.0		           0.79850            46.36955             0.34835		# O
303  1  5                 0.0		          46.31935             1.04626            47.42219		# Zr
304  1  4                 0.0		          47.53764             2.31748            48.61373		# O
305  1  5                 0.0		           0.93403            47.12305            47.32665		# Zr
306  1  4                 0.0		           2.25298            48.22788            48.55298		# O