# LAMMPS data file written by WriteLammpsdata function in RASPA(written by Zhao Li)
2684  atoms
610  bonds
488  angles
366  dihedrals
0  impropers
0.0      48.425900000000 xlo xhi
0.0      48.392894823954 ylo yhi
0.0      48.445391153205 zlo zhi
   -0.022382308351    -0.004565871375    -0.028919298568 xy xz yz

7 atom types
5 bond types
4 angle types
3 dihedral types
0 improper types

Masses

1     15.034520000000  # CH3_sp3
2     14.026580000000  # CH2_sp3
3     14.006703211812  # N
4     15.999404927130  # O
5     91.223647606720  # Zr
6     12.010735896764  # C
7      1.007940753896  # H

Pair Coeffs

1      0.194745898454      3.750000000000 # CH3_sp3
2      0.091411340091      3.950000000000 # CH2_sp3
3      0.068995689738      3.260000000000 # N
4      0.059993659942      3.120000000000 # O
5      0.068995689738      2.780000000000 # Zr
6      0.104983936891      3.430000000000 # C
7      0.043996675426      2.570000000000 # H

Atoms

1  1  3                 0.0		          14.90739            21.17236            45.42482		# N
2  1  3                 0.0		          21.34492            39.09744            21.32421		# N
3  1  3                 0.0		          45.50814            45.55533            39.38949		# N
4  1  3                 0.0		          21.25063            45.27937            15.27338		# N
5  1  3                 0.0		          39.35751            15.08386            14.94153		# N
6  1  3                 0.0		          39.35462            39.39499            39.27613		# N
7  1  3                 0.0		          45.37571            15.22191            21.21036		# N
8  1  3                 0.0		          21.06578            21.21376            39.29696		# N
9  1  3                 0.0		          39.19816            45.53663            45.58421		# N
10  1  3                 0.0		          15.11837            39.22407            15.11157		# N
11  1  3                 0.0		          39.14103            21.20724            21.04662		# N
12  1  3                 0.0		          45.42286            39.16427            45.56628		# N
13  1  3                 0.0		          15.06632            14.90048            39.20153		# N
14  1  3                 0.0		           8.98683            27.01994            27.14105		# N
15  1  3                 0.0		          27.01370            33.36616             2.86603		# N
16  1  3                 0.0		          33.47763             9.25268            33.30524		# N
17  1  3                 0.0		           3.08537             3.00934             9.27439		# N
18  1  3                 0.0		           3.11756             8.99630             3.14071		# N
19  1  3                 0.0		           9.12816            33.24200            33.31783		# N
20  1  3                 0.0		           9.24427             9.11664             9.08836		# N
21  1  3                 0.0		          33.46712             2.88545            27.11973		# N
22  1  3                 0.0		          27.09254            27.04858             9.16296		# N
23  1  3                 0.0		          33.43776            33.39583             9.09659		# N
24  1  3                 0.0		           9.05154             2.97619             3.19158		# N
25  1  3                 0.0		          27.14902             9.11315            27.09454		# N
26  1  3                 0.0		           2.75181            27.17152            33.43749		# N
27  1  3                 0.0		          33.26011            27.18935             2.76962		# N
28  1  3                 0.0		           2.92673            33.47600            27.19530		# N
29  1  3                 0.0		          27.17209             2.92225            33.56345		# N
30  1  3                 0.0		          21.32234            14.93836            45.46503		# N
31  1  3                 0.0		          45.50663            21.34197            15.03551		# N
32  1  3                 0.0		          15.12609            45.32268            21.36539		# N
33  1  4                 0.0		          12.02065            22.46244            39.87976		# O
34  1  4                 0.0		           9.65603            22.51401            39.41033		# O
35  1  4                 0.0		          13.50908            20.42284            36.36117		# O
36  1  4                 0.0		          13.49944            20.77162            34.14577		# O
37  1  4                 0.0		          15.47919            23.99431            37.85378		# O
38  1  4                 0.0		          14.94931            26.34921            37.69391		# O
39  1  4                 0.0		          10.07628            24.06024            32.79608		# O
40  1  4                 0.0		          10.33593            21.68193            33.26939		# O
41  1  4                 0.0		           8.33429            25.68033            36.21487		# O
42  1  4                 0.0		           8.90695            25.66196            38.61485		# O
43  1  4                 0.0		          11.73555            27.47529            34.47568		# O
44  1  4                 0.0		          14.20211            26.94291            34.57741		# O
45  1  4                 0.0		          11.73948            25.60984            32.69773		# O
46  1  4                 0.0		          14.10168            25.56749            33.11969		# O
47  1  4                 0.0		          10.10151            27.47919            36.05839		# O
48  1  4                 0.0		          10.31743            27.10219            38.51651		# O
49  1  4                 0.0		           8.34341            24.10564            34.57693		# O
50  1  4                 0.0		           8.62626            21.86102            34.83078		# O
51  1  4                 0.0		          13.69161            24.00576            39.75671		# O
52  1  4                 0.0		          13.50752            26.34973            39.24125		# O
53  1  4                 0.0		          15.40023            22.26757            36.37232		# O
54  1  4                 0.0		          14.86962            22.45436            33.95828		# O
55  1  4                 0.0		          12.06287            20.52971            38.11490		# O
56  1  4                 0.0		           9.64186            20.98418            38.01897		# O
57  1  5                 0.0		          11.17920            22.43649            37.94582		# Zr
58  1  4                 0.0		           9.86935            23.57395            36.75310		# O
59  1  5                 0.0		          13.46662            22.36098            35.54099		# Zr
60  1  4                 0.0		          12.26428            23.51205            34.24847		# O
61  1  5                 0.0		          13.52775            24.78895            37.81550		# Zr
62  1  4                 0.0		          12.31324            26.03770            36.63586		# O
63  1  5                 0.0		          10.24162            23.22093            34.71839		# Zr
64  1  4                 0.0		          11.43241            21.92861            35.91112		# O
65  1  5                 0.0		          10.28533            25.61453            37.00937		# Zr
66  1  4                 0.0		          11.50315            24.48280            38.32176		# O
67  1  5                 0.0		          12.60131            25.55692            34.61229		# Zr
68  1  4                 0.0		          13.93102            24.40253            35.78806		# O
69  1  4                 0.0		          13.18925            22.75854            37.55681		# O
70  1  4                 0.0		          10.57091            25.25860            34.97660		# O
71  1  6                 0.0		          13.01448            23.10867            40.37972		# C
72  1  6                 0.0		          12.93585            19.91749            37.39548		# C
73  1  6                 0.0		          16.00417            22.98665            37.25160		# C
74  1  6                 0.0		          10.74564            24.97571            32.19051		# C
75  1  6                 0.0		           7.77730            25.04406            35.24693		# C
76  1  6                 0.0		          10.75945            28.02950            35.10256		# C
77  1  7                 0.0		           8.93481            23.34540            36.98370		# H
78  1  7                 0.0		          12.53410            26.98222            36.82383		# H
79  1  7                 0.0		          13.77153            22.20409            38.13282		# H
80  1  7                 0.0		          12.45043            23.26484            33.30960		# H
81  1  7                 0.0		          10.63747            20.86478            33.74028		# H
82  1  7                 0.0		          12.89262            21.01887            33.40552		# H
83  1  7                 0.0		          11.09538            27.68881            38.34986		# H
84  1  7                 0.0		          12.62469            26.31124            39.68695		# H
85  1  7                 0.0		           8.92340            21.12365            35.41600		# H
86  1  7                 0.0		           9.81947            20.33082            37.29665		# H
87  1  7                 0.0		          14.05307            27.60014            35.30167		# H
88  1  7                 0.0		          15.39931            26.25391            36.81704		# H
89  1  7                 0.0		           9.72095            23.40419            39.83858		# H
90  1  7                 0.0		           8.34366            24.85142            38.55187		# H
91  1  7                 0.0		          15.40530            23.27599            34.09538		# H
92  1  7                 0.0		          14.08518            24.68410            32.67593		# H
93  1  4                 0.0		           8.74563             1.88779            12.18159		# O
94  1  4                 0.0		           9.24615             1.83848            14.52829		# O
95  1  4                 0.0		          12.18716             3.50422            10.39299		# O
96  1  4                 0.0		          14.39654             3.10158            10.39929		# O
97  1  4                 0.0		          10.36180             0.06007             8.80495		# O
98  1  4                 0.0		          10.46006            46.11286             9.33204		# O
99  1  4                 0.0		          15.70267            48.25678            14.00314		# O
100  1  4                 0.0		          15.46251             2.19130            13.65724		# O
101  1  4                 0.0		          12.28716            46.88179            15.87023		# O
102  1  4                 0.0		           9.95500            46.91592            15.44924		# O
103  1  4                 0.0		          13.82642            44.88521            12.43303		# O
104  1  4                 0.0		          13.75383            45.25392            10.08488		# O
105  1  4                 0.0		          15.67983            46.65255            12.38894		# O
106  1  4                 0.0		          15.09213            46.75565             9.90999		# O
107  1  4                 0.0		          12.34775            45.01775            14.15574		# O
108  1  4                 0.0		           9.82647            45.55116            13.95421		# O
109  1  4                 0.0		          14.00861            -0.00554            15.75929		# O
110  1  4                 0.0		          13.88744             2.42654            15.20023		# O
111  1  4                 0.0		           8.60566             0.13635            10.73308		# O
112  1  4                 0.0		           9.06329            46.14821            10.91426		# O
113  1  4                 0.0		          12.07152             1.55551             8.64750		# O
114  1  4                 0.0		          14.49725             1.29196             9.13341		# O
115  1  4                 0.0		          10.67750             3.66048            12.09149		# O
116  1  4                 0.0		          10.83050             3.22981            14.48227		# O
117  1  5                 0.0		          10.68508             1.74601            12.98288		# Zr
118  1  4                 0.0		          11.83658             0.56493            14.28800		# O
119  1  5                 0.0		          12.95947             1.55824            10.56497		# Zr
120  1  4                 0.0		          14.24656             0.42124            11.79161		# O
121  1  5                 0.0		          10.51247            47.67946            10.75100		# Zr
122  1  4                 0.0		          11.71100            46.41280            11.92871		# O
123  1  5                 0.0		          13.86701             0.81346            13.82195		# Zr
124  1  4                 0.0		          12.72319             2.10725            12.59289		# O
125  1  5                 0.0		          11.44569            46.91633            13.94888		# Zr
126  1  4                 0.0		          10.13969            48.10459            12.77796		# O
127  1  5                 0.0		          13.74766            46.78420            11.54551		# Zr
128  1  4                 0.0		          12.53952            47.91351            10.22149		# O
129  1  4                 0.0		          10.94213             1.30780            10.97433		# O
130  1  4                 0.0		          13.47707            47.17207            13.57488		# O
131  1  6                 0.0		           8.11457             1.16870            11.32314		# C
132  1  6                 0.0		          11.30158             4.14114            11.07365		# C
133  1  6                 0.0		          11.05007             0.93782             8.16644		# C
134  1  6                 0.0		          16.23683            47.28301            13.36172		# C
135  1  6                 0.0		          13.29409            47.49559            16.37696		# C
136  1  6                 0.0		          13.23720            44.39728            13.46297		# C
137  1  7                 0.0		          11.63154             0.81988            15.22057		# H
138  1  7                 0.0		          11.46981            45.47166            11.74752		# H
139  1  7                 0.0		          10.37049             1.87482            10.40074		# H
140  1  7                 0.0		          15.18983             0.61252            11.56682		# H
141  1  7                 0.0		          15.10723             2.97943            13.17424		# H
142  1  7                 0.0		          15.17869             2.83316            10.94042		# H
143  1  7                 0.0		          10.04430            44.81306            13.33266		# H
144  1  7                 0.0		           8.61860            46.27206            11.79015		# H
145  1  7                 0.0		          13.14023             2.30373            15.83535		# H
146  1  7                 0.0		          11.71214             3.66493            14.36454		# H
147  1  7                 0.0		          12.84797            44.85807            10.06986		# H
148  1  7                 0.0		          11.31917            46.14799             8.84128		# H
149  1  7                 0.0		           8.75891             0.97662            14.51133		# H
150  1  7                 0.0		           9.91289            47.83226            15.81887		# H
151  1  7                 0.0		          14.28122             0.47152             8.62328		# H
152  1  7                 0.0		          15.77799            47.45097            10.06695		# H
153  1  4                 0.0		          27.79969            34.55114            12.04982		# O
154  1  4                 0.0		          27.32915            34.75492            14.41299		# O
155  1  4                 0.0		          24.26757            32.60952            10.58822		# O
156  1  4                 0.0		          22.06400            33.01700            10.57563		# O
157  1  4                 0.0		          25.86663            36.08245             8.53559		# O
158  1  4                 0.0		          25.79867            38.43989             8.98759		# O
159  1  4                 0.0		          20.72365            36.38513            13.83358		# O
160  1  4                 0.0		          21.19304            34.01252            13.68146		# O
161  1  4                 0.0		          24.12074            38.09286            15.55872		# O
162  1  4                 0.0		          26.57607            37.89424            15.09752		# O
163  1  4                 0.0		          22.53822            39.74895            12.16367		# O
164  1  4                 0.0		          22.64573            39.18519             9.71718		# O
165  1  4                 0.0		          20.76760            38.01015            12.24118		# O
166  1  4                 0.0		          21.18875            37.78803             9.80486		# O
167  1  4                 0.0		          24.19033            39.81384            13.72119		# O
168  1  4                 0.0		          26.59250            39.29608            13.63883		# O
169  1  4                 0.0		          22.54959            36.44890            15.64108		# O
170  1  4                 0.0		          22.68671            34.23313            15.41339		# O
171  1  4                 0.0		          27.80250            36.12828            10.40752		# O
172  1  4                 0.0		          27.30602            38.46564            10.43562		# O
173  1  4                 0.0		          24.32164            34.41187             8.64314		# O
174  1  4                 0.0		          21.93069            34.67047             9.15133		# O
175  1  4                 0.0		          25.97488            32.70541            12.08761		# O
176  1  4                 0.0		          25.89982            33.26195            14.48372		# O
177  1  5                 0.0		          25.87124            34.64985            12.88599		# Zr
178  1  4                 0.0		          24.69236            35.86086            14.13927		# O
179  1  5                 0.0		          23.49863            34.57186            10.57127		# Zr
180  1  4                 0.0		          22.22048            35.79504            11.71846		# O
181  1  5                 0.0		          25.85298            36.93060            10.46711		# Zr
182  1  4                 0.0		          24.68762            38.25103            11.62156		# O
183  1  5                 0.0		          22.65430            35.54169            13.75268		# Zr
184  1  4                 0.0		          23.82936            34.18495            12.62002		# O
185  1  5                 0.0		          25.01689            37.88251            13.66402		# Zr
186  1  4                 0.0		          26.31392            36.67386            12.50618		# O
187  1  5                 0.0		          22.65251            37.81809            11.33428		# Zr
188  1  4                 0.0		          23.81638            36.59257            10.05823		# O
189  1  4                 0.0		          25.52603            34.91819            10.85710		# O
190  1  4                 0.0		          22.97834            37.56378            13.37335		# O
191  1  6                 0.0		          28.36751            35.19921            11.09545		# C
192  1  6                 0.0		          25.26290            32.08796            11.21365		# C
193  1  6                 0.0		          25.21532            35.09748             8.02449		# C
194  1  6                 0.0		          20.19347            37.36499            13.19071		# C
195  1  6                 0.0		          23.18733            37.43920            16.15266		# C
196  1  6                 0.0		          23.20710            40.34218            13.08704		# C
197  1  7                 0.0		          24.90350            35.65608            15.08347		# H
198  1  7                 0.0		          24.90707            39.18226            11.37401		# H
199  1  7                 0.0		          26.09294            34.33200            10.29658		# H
200  1  7                 0.0		          21.27726            35.57061            11.52564		# H
201  1  7                 0.0		          21.65882            33.18032            13.41356		# H
202  1  7                 0.0		          21.31563            33.30943            11.15164		# H
203  1  7                 0.0		          26.50759            39.82648            12.80848		# H
204  1  7                 0.0		          27.74662            38.45398            11.32169		# H
205  1  7                 0.0		          23.31079            33.50495            15.18085		# H
206  1  7                 0.0		          25.16164            32.62035            14.33112		# H
207  1  7                 0.0		          23.40523            39.80696             9.84217		# H
208  1  7                 0.0		          24.90285            38.39126             8.56902		# H
209  1  7                 0.0		          27.76749            35.63766            14.32433		# H
210  1  7                 0.0		          26.41897            37.14571            15.72489		# H
211  1  7                 0.0		          22.06352            35.50362             8.63394		# H
212  1  7                 0.0		          20.61477            36.99624             9.95068		# H
213  1  4                 0.0		           3.71120            34.81250            36.29916		# O
214  1  4                 0.0		           3.21363            34.85031            38.64053		# O
215  1  4                 0.0		           0.17375            32.90145            34.71451		# O
216  1  4                 0.0		          46.41014            33.28621            34.65590		# O
217  1  4                 0.0		           1.84009            36.42121            32.85324		# O
218  1  4                 0.0		           1.66171            38.77570            33.35659		# O
219  1  4                 0.0		          45.09546            36.57140            38.22777		# O
220  1  4                 0.0		          45.44428            34.21923            37.88720		# O
221  1  4                 0.0		           0.02508            38.11702            39.93935		# O
222  1  4                 0.0		           2.45856            38.04909            39.43455		# O
223  1  4                 0.0		          46.83448            39.96669            36.54236		# O
224  1  4                 0.0		          46.87414            39.49919            34.15109		# O
225  1  4                 0.0		          45.03243            38.13354            36.57579		# O
226  1  4                 0.0		          45.50970            38.03193            34.12445		# O
227  1  4                 0.0		          48.38640            39.91198            38.20452		# O
228  1  4                 0.0		           2.41977            39.49058            38.02527		# O
229  1  4                 0.0		          46.90018            36.45568            39.96067		# O
230  1  4                 0.0		          47.01609            34.09828            39.44375		# O
231  1  4                 0.0		           3.67235            36.42301            34.69223		# O
232  1  4                 0.0		           3.16132            38.78255            34.85888		# O
233  1  4                 0.0		           0.21323            34.82765            32.81739		# O
234  1  4                 0.0		          46.23852            35.03106            33.36628		# O
235  1  4                 0.0		           1.87867            32.93297            36.22553		# O
236  1  4                 0.0		           1.72474            33.35450            38.60468		# O
237  1  5                 0.0		           1.76342            34.84155            37.10239		# Zr
238  1  4                 0.0		           0.59279            35.99348            38.41526		# O
239  1  5                 0.0		          47.82005            34.85988            34.76538		# Zr
240  1  4                 0.0		          46.53515            36.00073            35.99057		# O
241  1  5                 0.0		           1.73203            37.22627            34.79300		# Zr
242  1  4                 0.0		           0.54587            38.48232            35.99541		# O
243  1  5                 0.0		          46.98209            35.66562            38.01510		# Zr
244  1  4                 0.0		          48.15180            34.38635            36.79670		# O
245  1  5                 0.0		           0.88293            38.03396            38.01994		# Zr
246  1  4                 0.0		           2.19301            36.88293            36.81850		# O
247  1  5                 0.0		          46.93956            38.04358            35.68633		# Zr
248  1  4                 0.0		          48.12617            36.90230            34.35214		# O
249  1  4                 0.0		           1.41672            35.19650            35.08754		# O
250  1  4                 0.0		          47.27560            37.70604            37.71522		# O
251  1  6                 0.0		           4.25674            35.48380            35.34770		# C
252  1  6                 0.0		           1.16329            32.35279            35.32832		# C
253  1  6                 0.0		           1.16794            35.49435            32.26851		# C
254  1  6                 0.0		          44.51059            37.50771            37.56940		# C
255  1  6                 0.0		          47.52873            37.42950            40.51294		# C
256  1  6                 0.0		          47.45206            40.48970            37.53985		# C
257  1  7                 0.0		           0.83058            35.76548            39.34686		# H
258  1  7                 0.0		           0.75368            39.42562            35.78613		# H
259  1  7                 0.0		           1.98894            34.63404            34.50911		# H
260  1  7                 0.0		          45.59242            35.77534            35.79775		# H
261  1  7                 0.0		          45.83791            33.42294            37.44926		# H
262  1  7                 0.0		          45.64388            33.53702            35.22804		# H
263  1  7                 0.0		           2.26412            40.10127            37.26323		# H
264  1  7                 0.0		           3.60291            38.72105            35.74253		# H
265  1  7                 0.0		          47.87268            34.14735            39.93499		# H
266  1  7                 0.0		           0.86396            32.87450            38.50633		# H
267  1  7                 0.0		          47.71894            40.01213            34.18888		# H
268  1  7                 0.0		           0.78867            38.69468            32.89684		# H
269  1  7                 0.0		           3.62774            35.74945            38.62987		# H
270  1  7                 0.0		           2.35912            37.24881            40.00717		# H
271  1  7                 0.0		          46.39120            35.86565            32.85615		# H
272  1  7                 0.0		          44.91295            37.25514            34.26349		# H
273  1  4                 0.0		          46.64296            44.76721             0.14776		# O
274  1  4                 0.0		          46.84642            45.19119             2.49058		# O
275  1  4                 0.0		          44.71148            48.28683            47.16450		# O
276  1  4                 0.0		          45.12511             2.06585            47.08698		# O
277  1  4                 0.0		          48.19182            46.67126            45.09442		# O
278  1  4                 0.0		           2.09707            46.74214            45.52317		# O
279  1  4                 0.0		           0.13965             3.35528             2.09526		# O
280  1  4                 0.0		          46.21223             3.02004             1.89421		# O
281  1  4                 0.0		           1.83595             0.03605             3.65569		# O
282  1  4                 0.0		           1.67673            45.98780             3.18771		# O
283  1  4                 0.0		           3.38655             1.75115             0.32410		# O
284  1  4                 0.0		           2.89463             1.59544            46.33511		# O
285  1  4                 0.0		           1.57802             3.46376             0.33670		# O
286  1  4                 0.0		           1.38844             2.94173            46.33608		# O
287  1  4                 0.0		           3.52328             0.03231             1.80556		# O
288  1  4                 0.0		           3.00181            45.97564             1.66604		# O
289  1  4                 0.0		           0.13888             1.54340             3.79957		# O
290  1  4                 0.0		          46.14940             1.39798             3.39893		# O
291  1  4                 0.0		          48.22692            44.74120            46.96006		# O
292  1  4                 0.0		           2.17025            45.26865            47.00995		# O
293  1  4                 0.0		          46.50733            48.19992            45.20682		# O
294  1  4                 0.0		          46.82152             2.23265            45.73632		# O
295  1  4                 0.0		          44.80289            46.60852             0.22091		# O
296  1  4                 0.0		          45.37356            46.70824             2.59183		# O
297  1  5                 0.0		          46.76161            46.68403             0.99701		# Zr
298  1  4                 0.0		          47.99146            47.82970             2.26385		# O
299  1  5                 0.0		          46.69283             0.64598            47.13397		# Zr
300  1  4                 0.0		          47.88001             1.92139            48.31846		# O
301  1  5                 0.0		           0.60931            46.69430            47.02303		# Zr
302  1  4                 0.0		           1.92341            47.88263            48.16441		# O
303  1  5                 0.0		          47.65507             1.47388             1.90584		# Zr
304  1  4                 0.0		          46.31479             0.32766             0.73540		# O
305  1  5                 0.0		           1.58607            47.54691             1.75808		# Zr
306  1  4                 0.0		           0.36354            46.25114             0.61235		# O